data_1000000
loop_
_publ_author_name
'Phan Thanh, S.'
'Marrot, J.'
_publ_section_title
;
[H~3~N(CH~2~)~5~NH~3~].AlP~2~O~8~H, a one-dimensional aluminophosphate
;
_journal_issue                   9
_cell_angle_alpha                90.00
_cell_angle_beta                 95.1470(10)
_cell_angle_gamma                90.00
_cell_formula_units_Z            4
_cell_length_a                   7.8783(2)
_cell_length_b                   10.46890(10)
_cell_length_c                   16.0680(4)
_journal_name_full               'Acta Crystallographica, Section C'
loop_
_atom_site_aniso_label
_atom_site_aniso_U_11
_atom_site_aniso_U_22
_atom_site_aniso_U_33
_atom_site_aniso_U_12
_atom_site_aniso_U_13
_atom_site_aniso_U_23
P1 .0276(5) .0230(5) .0341(6) .0016(4) .0063(4) .0016(4)
P2 .0259(5) .0418(6) .0193(5) -.0018(4) .0019(4) -.0034(4)
Al1 .0218(6) .0289(6) .0233(6) .0004(4) .0024(4) -.0027(4)
loop_
_atom_site_label
_atom_site_fract_x
_atom_site_fract_y
_atom_site_fract_z
_atom_site_U_iso_or_equiv
_atom_site_thermal_displace_type
_atom_site_calc_flag
_atom_site_refinement_flags
_atom_site_occupancy
_atom_site_type_symbol
P1 .55909(13) .78402(9) .02396(7) .0280(3) Uani d . 1 P
P2 .09646(13) 1.05563(11) .13485(6) .0290(3) Uani d . 1 P
Al1 .24723(13) .95928(11) -.02995(7) .0246(4) Uani d . 1 Al
loop_
_atom_type_symbol
_atom_type_description
_atom_type_scat_dispersion_real
_atom_type_scat_dispersion_imag
_atom_type_scat_source
O O .0106 .0060 'International Tables Vol C Tables 4.2.6.8 and 6.1.1.4'
Al Al .0645 .0514 'International Tables Vol C Tables 4.2.6.8 and 6.1.1.4'
P P .1023 .0942 'International Tables Vol C Tables 4.2.6.8 and 6.1.1.4'
