###############################################################################
# Gerlach, W. (1922)
# Physikalische Zeitschrift 23, 114-120
# Das Kalpha-Dublett nebst einer Neubestimmung der Gitterkonstanten ein\
#iger Krystalle
# 
# CIF by ICSD-for-WWW,  Copyright 2003 FIZ-Karlsruhe & A.W.Hewat (hewat@ill.fr)
# NOT TO BE PUBLISHED IN ANY FORM. See http://icsd.ill.fr/icsd/conditions.html
###############################################################################

data_53943-ICSD
_database_code_ICSD                53943
_audit_creation_date               2003-04-01
_chemical_name_systematic
'Zinc sulfide - cubic'
_chemical_formula_structural       
'Zn S'
_chemical_formula_sum              
'S1 Zn1'
_publ_section_title                
'S1 Zn1'
loop_
_citation_id
_citation_journal_abbrev
_citation_year
_citation_journal_volume
_citation_page_first
_citation_page_last
_citation_journal_id_ASTM
primary 'Physikalische Zeitschrift' 1922 23 114 120 PHZTAO
loop_
_publ_author_name
Gerlach, W.
_cell_length_a                     5.401(15)
_cell_length_b                     5.401
_cell_length_c                     5.401
_cell_angle_alpha                  90.
_cell_angle_beta                   90.
_cell_angle_gamma                  90.
_cell_volume                       157.55
_cell_formula_units_Z              4
_symmetry_space_group_name_H-M     'F -4 3 m'
_symmetry_Int_Tables_number        216
_refine_ls_R_factor_all            
loop_
_symmetry_equiv_pos_site_id
_symmetry_equiv_pos_as_xyz
  1     '-z, -y, x'
  2     '-y, -x, z'
  3     '-x, -z, y'
  4     '-z, -x, y'
  5     '-y, -z, x'
  6     '-x, -y, z'
  7     '-z, y, -x'
  8     '-y, x, -z'
  9     '-x, z, -y'
  10     '-z, x, -y'
  11     '-y, z, -x'
  12     '-x, y, -z'
  13     'z, -y, -x'
  14     'y, -x, -z'
  15     'x, -z, -y'
  16     'z, -x, -y'
  17     'y, -z, -x'
  18     'x, -y, -z'
  19     'z, y, x'
  20     'y, x, z'
  21     'x, z, y'
  22     'z, x, y'
  23     'y, z, x'
  24     'x, y, z'
loop_
_atom_type_symbol
_atom_type_oxidation_number
Zn2+     2.
S2-     -2.
loop_
_atom_site_label
_atom_site_type_symbol
_atom_site_symmetry_multiplicity
_atom_site_Wyckoff_symbol
_atom_site_fract_x
_atom_site_fract_y
_atom_site_fract_z
_atom_site_B_iso_or_equiv
_atom_site_occupancy
Zn1 Zn2+ 4 a 0 0 0 0. 1.
S1 S2- 4 c 0.25 0.25 0.25 0. 1.
#End of data_53943-ICSD

