###############################################################################
# Barth, T. (1925)
# Norsk Geologisk Tidsskrift 8, 201-216
# Die Kristallstruktur von Perowskit und verwandter Verbindungen
# 
# CIF by ICSD-for-WWW,  Copyright 2003 FIZ-Karlsruhe & A.W.Hewat (hewat@ill.fr)
# NOT TO BE PUBLISHED IN ANY FORM. See http://icsd.ill.fr/icsd/conditions.html
###############################################################################

data_31864-ICSD
_database_code_ICSD                31864
_audit_creation_date               1980-01-01
_chemical_name_systematic
'Calcium titanate'
_chemical_formula_structural       
'Ca (Ti O3)'
_chemical_formula_sum              
'Ca1 O3 Ti1'
_publ_section_title                
'Ca1 O3 Ti1'
loop_
_citation_id
_citation_journal_abbrev
_citation_year
_citation_journal_volume
_citation_page_first
_citation_page_last
_citation_journal_id_ASTM
primary 'Norsk Geologisk Tidsskrift' 1925 8 201 216 NOGTAO
loop_
_publ_author_name
Barth, T.
_cell_length_a                     5.302
_cell_length_b                     5.366
_cell_length_c                     3.777
_cell_angle_alpha                  90.
_cell_angle_beta                   90.
_cell_angle_gamma                  90.
_cell_volume                       107.46
_cell_formula_units_Z              2
_symmetry_space_group_name_H-M     'C m m m'
_symmetry_Int_Tables_number        65
_refine_ls_R_factor_all            
loop_
_symmetry_equiv_pos_site_id
_symmetry_equiv_pos_as_xyz
  1     'x, -y, z'
  2     '-x, y, z'
  3     'x, y, -z'
  4     '-x, -y, -z'
  5     '-x, y, -z'
  6     'x, -y, -z'
  7     '-x, -y, z'
  8     'x, y, z'
loop_
_atom_type_symbol
_atom_type_oxidation_number
Ca2+     2.
Ti4+     4.
O2-     -2.
loop_
_atom_site_label
_atom_site_type_symbol
_atom_site_symmetry_multiplicity
_atom_site_Wyckoff_symbol
_atom_site_fract_x
_atom_site_fract_y
_atom_site_fract_z
_atom_site_B_iso_or_equiv
_atom_site_occupancy
Ca1 Ca2+ 2 b 0.5 0 0 0. 1.
Ti1 Ti4+ 2 d 0 0 0.5 0. 1.
O1 O2- 2 a 0 0 0 0. 1.
O2 O2- 4 f 0.25 0.25 0.5 0. 1.
#End of data_31864-ICSD
