###############################################################################
# Harris, P.M.;Mack, E.;Blake, F.C. (1928)
# Journal of the American Chemical Society 50, 1583-1600
# The Atomic Arrangement in the Crystal of Orthorhombic Iodine
# 
# CIF by ICSD-for-WWW,  Copyright 2003 FIZ-Karlsruhe & A.W.Hewat (hewat@ill.fr)
# NOT TO BE PUBLISHED IN ANY FORM. See http://icsd.ill.fr/icsd/conditions.html
###############################################################################

data_24009-ICSD
_database_code_ICSD                24009
_audit_creation_date               1980-01-01
_chemical_name_systematic
'Diiodine'
_chemical_formula_structural       
'I2'
_chemical_formula_sum              
'I2'
_publ_section_title                
'I2'
loop_
_citation_id
_citation_journal_abbrev
_citation_year
_citation_journal_volume
_citation_page_first
_citation_page_last
_citation_journal_id_ASTM
primary 'Journal of the American Chemical Society' 1928 50 1583 1600 JACSAT
loop_
_publ_author_name
Harris, P.M.;Mack, E.;Blake, F.C.
_cell_length_a                     7.255
_cell_length_b                     4.795
_cell_length_c                     9.78
_cell_angle_alpha                  90.
_cell_angle_beta                   90.
_cell_angle_gamma                  90.
_cell_volume                       340.22
_cell_formula_units_Z              4
_symmetry_space_group_name_H-M     'C m c a'
_symmetry_Int_Tables_number        64
_refine_ls_R_factor_all            
loop_
_symmetry_equiv_pos_site_id
_symmetry_equiv_pos_as_xyz
  1     '-x, -y+1/2, z+1/2'
  2     '-x, y+1/2, -z+1/2'
  3     '-x, y, z'
  4     '-x, -y, -z'
  5     'x, y+1/2, -z+1/2'
  6     'x, -y+1/2, z+1/2'
  7     'x, -y, -z'
  8     'x, y, z'
loop_
_atom_type_symbol
_atom_type_oxidation_number
I0+     0.
loop_
_atom_site_label
_atom_site_type_symbol
_atom_site_symmetry_multiplicity
_atom_site_Wyckoff_symbol
_atom_site_fract_x
_atom_site_fract_y
_atom_site_fract_z
_atom_site_B_iso_or_equiv
_atom_site_occupancy
I1 I0+ 8 f 0 0.15 0.117 0. 1.
#End of data_24009-ICSD
