###############################################################################
# King, H.E.jr.;Prewitt, C.T. (1982)
# Acta Crystallographica B (24,1968-38,1982) 38, 1877-1887
# High-pressure and high-temperature polymorphism of iron sulfide
# 
# CIF by ICSD-for-WWW,  Copyright 2003 FIZ-Karlsruhe & A.W.Hewat (hewat@ill.fr)
# NOT TO BE PUBLISHED IN ANY FORM. See http://icsd.ill.fr/icsd/conditions.html
###############################################################################

data_35009-ICSD
_database_code_ICSD                35009
_audit_creation_date               1982-12-31
_chemical_name_systematic
'Iron sulfide'
_chemical_formula_structural       
'Fe S'
_chemical_formula_sum              
'Fe1 S1'
_publ_section_title                
'Fe1 S1'
loop_
_citation_id
_citation_journal_abbrev
_citation_year
_citation_journal_volume
_citation_page_first
_citation_page_last
_citation_journal_id_ASTM
primary 'Acta Crystallographica B (24,1968-38,1982)' 1982 38 1877 1887 ACBCAR
loop_
_publ_author_name
King, H.E.jr.;Prewitt, C.T.
_cell_length_a                     5.716(9)
_cell_length_b                     3.348(4)
_cell_length_c                     5.799(7)
_cell_angle_alpha                  90.
_cell_angle_beta                   90.
_cell_angle_gamma                  90.
_cell_volume                       110.98
_cell_formula_units_Z              4
_symmetry_space_group_name_H-M     'P n m a'
_symmetry_Int_Tables_number        62
_refine_ls_R_factor_all            
loop_
_symmetry_equiv_pos_site_id
_symmetry_equiv_pos_as_xyz
  1     'x+1/2, y, -z+1/2'
  2     'x, -y+1/2, z'
  3     '-x+1/2, y+1/2, z+1/2'
  4     '-x, -y, -z'
  5     '-x+1/2, -y, z+1/2'
  6     '-x, y+1/2, -z'
  7     'x+1/2, -y+1/2, -z+1/2'
  8     'x, y, z'
loop_
_atom_type_symbol
_atom_type_oxidation_number
Fe2+     2.
S2-     -2.
loop_
_atom_site_label
_atom_site_type_symbol
_atom_site_symmetry_multiplicity
_atom_site_Wyckoff_symbol
_atom_site_fract_x
_atom_site_fract_y
_atom_site_fract_z
_atom_site_B_iso_or_equiv
_atom_site_occupancy
Fe1 Fe2+ 4 c 0.008(2) 0.25 0.206(1) 1.09 1.
S1 S2- 4 c 0.222(2) 0.25 0.577(2) 0.76 1.
#End of data_35009-ICSD
