###############################################################################
# Arakcheeva, A.V.Arakcheeva, A.V.Chapuis, G.Arakcheeva, A.V.Arakcheeva\
#, A.V.Chapuis, G.Birkedal, H.Arakcheeva, A.V.Arakcheeva, A.V.Chapuis, G.Arakcheeva, A.V.Arakcheeva, A.V.Chapuis, G.Birkedal, H.Pattison, P.Arakcheev (2003)
# Acta Crystallographica B (39,1983-) 59, 324-336
# The commensurate composite sigma-structure of beta-tantalum
# 
# CIF by ICSD-for-WWW,  Copyright 2003 FIZ-Karlsruhe & A.W.Hewat (hewat@ill.fr)
# NOT TO BE PUBLISHED IN ANY FORM. See http://icsd.ill.fr/icsd/conditions.html
###############################################################################

data_54204-ICSD
_database_code_ICSD                54204
_audit_creation_date               2004-04-01
_chemical_name_systematic
'Tantalum - beta, LT guest'
_chemical_formula_structural       
'Ta8'
_chemical_formula_sum              
'Ta8'
_publ_section_title                
'Ta8'
loop_
_citation_id
_citation_journal_abbrev
_citation_year
_citation_journal_volume
_citation_page_first
_citation_page_last
_citation_journal_id_ASTM
primary 'Acta Crystallographica B (39,1983-)' 2003 59 324 336 ASBSDK
loop_
_publ_author_name
Arakcheeva, A.V.Arakcheeva, A.V.Chapuis, G.Arakcheeva, A.V.Arakcheeva\
, A.V.Chapuis, G.Birkedal, H.Arakcheeva, A.V.Arakcheeva, A.V.Chapuis, G.Arakcheeva, A.V.Arakcheeva, A.V.Chapuis, G.Birkedal, H.Pattison, P.Arakcheev
_cell_length_a                     10.1815(5)
_cell_length_b                     10.1815(5)
_cell_length_c                     2.64750(5)
_cell_angle_alpha                  90.
_cell_angle_beta                   90.
_cell_angle_gamma                  90.
_cell_volume                       274.45
_cell_formula_units_Z              1
_symmetry_space_group_name_H-M     'P 4/m b m'
_symmetry_Int_Tables_number        127
_refine_ls_R_factor_all            0.036300
loop_
_symmetry_equiv_pos_site_id
_symmetry_equiv_pos_as_xyz
  1     'y+1/2, x+1/2, -z'
  2     '-y+1/2, -x+1/2, -z'
  3     '-y, x, -z'
  4     'y, -x, -z'
  5     'x+1/2, -y+1/2, -z'
  6     '-x+1/2, y+1/2, -z'
  7     'x, y, -z'
  8     '-x, -y, -z'
  9     '-y+1/2, -x+1/2, z'
  10     'y+1/2, x+1/2, z'
  11     'y, -x, z'
  12     '-y, x, z'
  13     '-x+1/2, y+1/2, z'
  14     'x+1/2, -y+1/2, z'
  15     '-x, -y, z'
  16     'x, y, z'
loop_
_atom_type_symbol
_atom_type_oxidation_number
Ta0+     0.
loop_
_atom_site_label
_atom_site_type_symbol
_atom_site_symmetry_multiplicity
_atom_site_Wyckoff_symbol
_atom_site_fract_x
_atom_site_fract_y
_atom_site_fract_z
_atom_site_B_iso_or_equiv
_atom_site_occupancy
Ta1 Ta0+ 4 g 0.81809(3) 0.31809(3) 0 0.00567(15) 1.
Ta2 Ta0+ 4 h 0.81809(3) 0.31809(3) 0.5 0.00567(15) 1.
loop_
_atom_site_aniso_label
_atom_site_aniso_type_symbol
_atom_site_aniso_U_11
_atom_site_aniso_U_22
_atom_site_aniso_U_33
_atom_site_aniso_U_12
_atom_site_aniso_U_13
_atom_site_aniso_U_23
Ta1 Ta0+ 0.0056(3) 0.0062(3) 0.0052(3) 0.00029(9) 0 0
Ta2 Ta0+ 0.0056(3) 0.0062(3) 0.0052(3) 0.00029(9) 0 0
#End of data_54204-ICSD
