###############################################################################
# Hull, W.H.;Bragg, W.L. (1913)
# Proceedings of the Royal Society of London, Series A: Mathematical and Physical Sciences (76,1906-) 33, 277-277
# Structure of some crystals
# 
# CIF by ICSD-for-WWW,  Copyright 2003 FIZ-Karlsruhe & A.W.Hewat (hewat@ill.fr)
# NOT TO BE PUBLISHED IN ANY FORM. See http://icsd.ill.fr/icsd/conditions.html
###############################################################################

data_53779-ICSD
_database_code_ICSD                53779
_audit_creation_date               2003-04-01
_chemical_name_systematic
'Carbon'
_chemical_formula_structural       
'C'
_chemical_formula_sum              
'C1'
_publ_section_title                
'C1'
loop_
_citation_id
_citation_journal_abbrev
_citation_year
_citation_journal_volume
_citation_page_first
_citation_page_last
_citation_journal_id_ASTM
primary 'Proceedings of the Royal Society of London, Series A: Mathematical and Physical Sciences (76,1906-)' 1913 33 277 277 PRLAAZ
loop_
_publ_author_name
Hull, W.H.;Bragg, W.L.
_cell_length_a                     3.56
_cell_length_b                     3.56
_cell_length_c                     3.56
_cell_angle_alpha                  90.
_cell_angle_beta                   90.
_cell_angle_gamma                  90.
_cell_volume                       45.12
_cell_formula_units_Z              8
_symmetry_space_group_name_H-M     'F d -3 m S'
_symmetry_Int_Tables_number        227
_refine_ls_R_factor_all            
loop_
_symmetry_equiv_pos_site_id
_symmetry_equiv_pos_as_xyz
  1     'z+1/4, y+1/4, -x+1/4'
  2     'y+1/4, x+1/4, -z+1/4'
  3     'x+1/4, z+1/4, -y+1/4'
  4     'z+1/4, x+1/4, -y+1/4'
  5     'y+1/4, z+1/4, -x+1/4'
  6     'x+1/4, y+1/4, -z+1/4'
  7     'z+1/4, -y+1/4, x+1/4'
  8     'y+1/4, -x+1/4, z+1/4'
  9     'x+1/4, -z+1/4, y+1/4'
  10     'z+1/4, -x+1/4, y+1/4'
  11     'y+1/4, -z+1/4, x+1/4'
  12     'x+1/4, -y+1/4, z+1/4'
  13     '-z+1/4, y+1/4, x+1/4'
  14     '-y+1/4, x+1/4, z+1/4'
  15     '-x+1/4, z+1/4, y+1/4'
  16     '-z+1/4, x+1/4, y+1/4'
  17     '-y+1/4, z+1/4, x+1/4'
  18     '-x+1/4, y+1/4, z+1/4'
  19     '-z+1/4, -y+1/4, -x+1/4'
  20     '-y+1/4, -x+1/4, -z+1/4'
  21     '-x+1/4, -z+1/4, -y+1/4'
  22     '-z+1/4, -x+1/4, -y+1/4'
  23     '-y+1/4, -z+1/4, -x+1/4'
  24     '-x+1/4, -y+1/4, -z+1/4'
  25     '-z, -y, x'
  26     '-y, -x, z'
  27     '-x, -z, y'
  28     '-z, -x, y'
  29     '-y, -z, x'
  30     '-x, -y, z'
  31     '-z, y, -x'
  32     '-y, x, -z'
  33     '-x, z, -y'
  34     '-z, x, -y'
  35     '-y, z, -x'
  36     '-x, y, -z'
  37     'z, -y, -x'
  38     'y, -x, -z'
  39     'x, -z, -y'
  40     'z, -x, -y'
  41     'y, -z, -x'
  42     'x, -y, -z'
  43     'z, y, x'
  44     'y, x, z'
  45     'x, z, y'
  46     'z, x, y'
  47     'y, z, x'
  48     'x, y, z'
loop_
_atom_type_symbol
_atom_type_oxidation_number
C0+     0.
loop_
_atom_site_label
_atom_site_type_symbol
_atom_site_symmetry_multiplicity
_atom_site_Wyckoff_symbol
_atom_site_fract_x
_atom_site_fract_y
_atom_site_fract_z
_atom_site_B_iso_or_equiv
_atom_site_occupancy
C1 C0+ 8 a 0 0 0 0. 1.
#End of data_53779-ICSD
