###############################################################################
# Ballentyne, D.W.G.Ballentyne, D.W.G.Roy, B. (1961)
# Physica (Utrecht) (18,1952-78,1974) 27, 337-341
# Electroluminescence and crystal structure in the alloy system Zn S - \
#Cd S
# 
# CIF by ICSD-for-WWW,  Copyright 2003 FIZ-Karlsruhe & A.W.Hewat (hewat@ill.fr)
# NOT TO BE PUBLISHED IN ANY FORM. See http://icsd.ill.fr/icsd/conditions.html
###############################################################################

data_43597-ICSD
_database_code_ICSD                43597
_audit_creation_date               2000-07-15
_chemical_name_systematic
'Zinc sulfide - 2H'
_chemical_formula_structural       
'Zn S'
_chemical_formula_sum              
'S1 Zn1'
_publ_section_title                
'S1 Zn1'
loop_
_citation_id
_citation_journal_abbrev
_citation_year
_citation_journal_volume
_citation_page_first
_citation_page_last
_citation_journal_id_ASTM
primary 'Physica (Utrecht) (18,1952-78,1974)' 1961 27 337 341 PHYSAG
loop_
_publ_author_name
Ballentyne, D.W.G.Ballentyne, D.W.G.Roy, B.
_cell_length_a                     3.818
_cell_length_b                     3.818
_cell_length_c                     6.26
_cell_angle_alpha                  90.
_cell_angle_beta                   90.
_cell_angle_gamma                  120.
_cell_volume                       79.03
_cell_formula_units_Z              2
_symmetry_space_group_name_H-M     'P 63 m c'
_symmetry_Int_Tables_number        186
_refine_ls_R_factor_all            
loop_
_symmetry_equiv_pos_site_id
_symmetry_equiv_pos_as_xyz
  1     '-x, -x+y, z+1/2'
  2     'x-y, -y, z+1/2'
  3     'y, x, z+1/2'
  4     'x-y, x, z+1/2'
  5     'y, -x+y, z+1/2'
  6     '-x, -y, z+1/2'
  7     'x, x-y, z'
  8     '-x+y, y, z'
  9     '-y, -x, z'
  10     '-x+y, -x, z'
  11     '-y, x-y, z'
  12     'x, y, z'
loop_
_atom_type_symbol
_atom_type_oxidation_number
Zn2+     2.
S2-     -2.
loop_
_atom_site_label
_atom_site_type_symbol
_atom_site_symmetry_multiplicity
_atom_site_Wyckoff_symbol
_atom_site_fract_x
_atom_site_fract_y
_atom_site_fract_z
_atom_site_B_iso_or_equiv
_atom_site_occupancy
Zn1 Zn2+ 2 b 0.3333 0.6667 0 0.9 1.
S1 S2- 2 b 0.3333 0.6667 0.375 0.7 1.
#End of data_43597-ICSD

